 DBCSR| CPU Multiplication driver                                           XSMM (U)
 DBCSR| Multrec recursion limit                                              512 (U)
 DBCSR| Multiplication stack size                                           1000 (D)
 DBCSR| Maximum elements for images                                    UNLIMITED (U)
 DBCSR| Multiplicative factor virtual images                                   1 (U)
 DBCSR| Use multiplication densification                                       T (D)
 DBCSR| Multiplication size stacks                                             3 (U)
 DBCSR| Use memory pool for CPU allocation                                     F (U)
 DBCSR| Number of 3D layers                                               SINGLE (U)
 DBCSR| Use MPI memory allocation                                              F (U)
 DBCSR| Use RMA algorithm                                                      F (U)
 DBCSR| Use Communication thread                                               T (U)
 DBCSR| Communication thread load                                             87 (D)
 DBCSR| MPI: My process id                                                     0
 DBCSR| MPI: Number of processes                                             128
 DBCSR| OMP: Current number of threads                                         1
 DBCSR| OMP: Max number of threads                                             1
 DBCSR| Split modifier for TAS multiplication algorithm                  1.0E+00 (U)


  **** **** ******  **  PROGRAM STARTED AT               2024-08-03 22:55:14.714
 ***** ** ***  *** **   PROGRAM STARTED ON                             a01r05n08
 **    ****   ******    PROGRAM STARTED BY                            acot61svdh
 ***** **    ** ** **   PROGRAM PROCESS ID                                243846
  **** **  *******  **  PROGRAM STARTED IN /work/home/acot61svdh/lyuli/Calculati
                                           on/Co-NGO/5-TransitionState/C4-try-1/
                                           4-TDDFT/2-PBE0/6-C4-CO-O-H2O

 CP2K| version string:                                       CP2K version 2023.1
 CP2K| source code revision number:                                  git:b888bd8
 CP2K| cp2kflags: omp libint fftw3 libxc parallel scalapack cosma xsmm plumed2 s
 CP2K|            pglib mkl sirius libvori libbqb libvdwxc
 CP2K| is freely available from                            https://www.cp2k.org/
 CP2K| Program compiled at                          Wed Mar 22 19:45:50 CST 2023
 CP2K| Program compiled on                                             a01r08n02
 CP2K| Program compiled for                                                local
 CP2K| Data directory path           /public/software/apps/cp2k/cp2k-2023.1/data
 CP2K| Input file name                                        Hybrid-TD-1-nv.inp
 
 GLOBAL| Force Environment number                                              1
 GLOBAL| Basis set file name                                    BASIS_MOLOPT_UZH
 GLOBAL| Potential file name                                           POTENTIAL
 GLOBAL| MM Potential file name                                     MM_POTENTIAL
 GLOBAL| Coordinate file name                              6-C4-CO-O-H2O-opt.cif
 GLOBAL| Method name                                                        CP2K
 GLOBAL| Project name                                                  PBE0_1_nv
 GLOBAL| Run type                                                         ENERGY
 GLOBAL| FFT library                                                       FFTW3
 GLOBAL| Diagonalization library                                       ScaLAPACK
 GLOBAL| DGEMM library                                                      BLAS
 GLOBAL| Orthonormality check for eigenvectors                          DISABLED
 GLOBAL| Matrix multiplication library                                     COSMA
 GLOBAL| All-to-all communication in single precision                          F
 GLOBAL| FFTs using library dependent lengths                                  F
 GLOBAL| Grid backend                                                       AUTO
 GLOBAL| Global print level                                               MEDIUM
 GLOBAL| MPI I/O enabled                                                       T
 GLOBAL| Total number of message passing processes                           128
 GLOBAL| Number of threads for this process                                    1
 GLOBAL| This output is from process                                           0
 GLOBAL| Stack size for threads created by OpenMP (OMP_STACKSIZE)        default
 GLOBAL| CPU model name                          AMD EPYC 7742 64-Core Processor
 GLOBAL| CPUID                                                              1002

 MEMORY| system memory details [Kb]
 MEMORY|                        rank 0           min           max       average
 MEMORY| MemTotal            525857644     525857644     525857644     525857644
 MEMORY| MemFree             394317568     394313228     394317568     394314807
 MEMORY| Buffers                118792        118792        118792        118792
 MEMORY| Cached                1577508       1577508       1577508       1577508
 MEMORY| Slab                  3636164       3636164       3636164       3636164
 MEMORY| SReclaimable           317192        317192        317192        317192
 MEMORY| MemLikelyFree       396331060     396326720     396331060     396328299


 *** Fundamental physical constants (SI units) ***

 *** Literature: B. J. Mohr and B. N. Taylor,
 ***             CODATA recommended values of the fundamental physical
 ***             constants: 2006, Web Version 5.1
 ***             http://physics.nist.gov/constants

 Speed of light in vacuum [m/s]                             2.99792458000000E+08
 Magnetic constant or permeability of vacuum [N/A**2]       1.25663706143592E-06
 Electric constant or permittivity of vacuum [F/m]          8.85418781762039E-12
 Planck constant (h) [J*s]                                  6.62606896000000E-34
 Planck constant (h-bar) [J*s]                              1.05457162825177E-34
 Elementary charge [C]                                      1.60217648700000E-19
 Electron mass [kg]                                         9.10938215000000E-31
 Electron g factor [ ]                                     -2.00231930436220E+00
 Proton mass [kg]                                           1.67262163700000E-27
 Fine-structure constant                                    7.29735253760000E-03
 Rydberg constant [1/m]                                     1.09737315685270E+07
 Avogadro constant [1/mol]                                  6.02214179000000E+23
 Boltzmann constant [J/K]                                   1.38065040000000E-23
 Atomic mass unit [kg]                                      1.66053878200000E-27
 Bohr radius [m]                                            5.29177208590000E-11

 *** Conversion factors ***

 [u] -> [a.u.]                                              1.82288848426455E+03
 [Angstrom] -> [Bohr] = [a.u.]                              1.88972613288564E+00
 [a.u.] = [Bohr] -> [Angstrom]                              5.29177208590000E-01
 [a.u.] -> [s]                                              2.41888432650478E-17
 [a.u.] -> [fs]                                             2.41888432650478E-02
 [a.u.] -> [J]                                              4.35974393937059E-18
 [a.u.] -> [N]                                              8.23872205491840E-08
 [a.u.] -> [K]                                              3.15774647902944E+05
 [a.u.] -> [kJ/mol]                                         2.62549961709828E+03
 [a.u.] -> [kcal/mol]                                       6.27509468713739E+02
 [a.u.] -> [Pa]                                             2.94210107994716E+13
 [a.u.] -> [bar]                                            2.94210107994716E+08
 [a.u.] -> [atm]                                            2.90362800883016E+08
 [a.u.] -> [eV]                                             2.72113838565563E+01
 [a.u.] -> [Hz]                                             6.57968392072181E+15
 [a.u.] -> [1/cm] (wave numbers)                            2.19474631370540E+05
 [a.u./Bohr**2] -> [1/cm]                                   5.14048714338585E+03
 

 CELL_TOP| Volume [angstrom^3]:                                      6439.292592
 CELL_TOP| Vector a [angstrom    17.237     0.000     0.000   |a| =    17.237200
 CELL_TOP| Vector b [angstrom    -8.619    14.928     0.000   |b| =    17.237200
 CELL_TOP| Vector c [angstrom     0.000     0.000    25.025   |c| =    25.025000
 CELL_TOP| Angle (b,c), alpha [degree]:                                90.000000
 CELL_TOP| Angle (a,c), beta  [degree]:                                90.000000
 CELL_TOP| Angle (a,b), gamma [degree]:                               120.000000
 CELL_TOP| Numerically orthorhombic:                                          NO
 CELL_TOP| Periodicity                                                       XYZ

 CELL_CIF| Volume [angstrom^3]:                                      6439.292592
 CELL_CIF| Vector a [angstrom    17.237     0.000     0.000   |a| =    17.237200
 CELL_CIF| Vector b [angstrom    -8.619    14.928     0.000   |b| =    17.237200
 CELL_CIF| Vector c [angstrom     0.000     0.000    25.025   |c| =    25.025000
 CELL_CIF| Angle (b,c), alpha [degree]:                                90.000000
 CELL_CIF| Angle (a,c), beta  [degree]:                                90.000000
 CELL_CIF| Angle (a,b), gamma [degree]:                               120.000000
 CELL_CIF| Numerically orthorhombic:                                          NO
 CELL_CIF| Periodicity                                                       XYZ
 
 GENERATE|  Preliminary Number of Bonds generated:                             0
 GENERATE|  Achieved consistency in connectivity generation.

 CELL| Volume [angstrom^3]:                                          6439.292592
 CELL| Vector a [angstrom]:      17.237     0.000     0.000   |a| =    17.237200
 CELL| Vector b [angstrom]:      -8.619    14.928     0.000   |b| =    17.237200
 CELL| Vector c [angstrom]:       0.000     0.000    25.025   |c| =    25.025000
 CELL| Angle (b,c), alpha [degree]:                                    90.000000
 CELL| Angle (a,c), beta  [degree]:                                    90.000000
 CELL| Angle (a,b), gamma [degree]:                                   120.000000
 CELL| Numerically orthorhombic:                                              NO
 CELL| Periodicity                                                           XYZ

 CELL_REF| Volume [angstrom^3]:                                      6439.292592
 CELL_REF| Vector a [angstrom    17.237     0.000     0.000   |a| =    17.237200
 CELL_REF| Vector b [angstrom    -8.619    14.928     0.000   |b| =    17.237200
 CELL_REF| Vector c [angstrom     0.000     0.000    25.025   |c| =    25.025000
 CELL_REF| Angle (b,c), alpha [degree]:                                90.000000
 CELL_REF| Angle (a,c), beta  [degree]:                                90.000000
 CELL_REF| Angle (a,b), gamma [degree]:                               120.000000
 CELL_REF| Numerically orthorhombic:                                          NO
 CELL_REF| Periodicity                                                       XYZ

 *******************************************************************************
 *******************************************************************************
 **                                                                           **
 **     #####                         ##              ##                      **
 **    ##   ##            ##          ##              ##                      **
 **   ##     ##                       ##            ######                    **
 **   ##     ##  ##   ##  ##   #####  ##  ##   ####   ##    #####    #####    **
 **   ##     ##  ##   ##  ##  ##      ## ##   ##      ##   ##   ##  ##   ##   **
 **   ##  ## ##  ##   ##  ##  ##      ####     ###    ##   ######   ######    **
 **    ##  ###   ##   ##  ##  ##      ## ##      ##   ##   ##       ##        **
 **     #######   #####   ##   #####  ##  ##  ####    ##    #####   ##        **
 **           ##                                                    ##        **
 **                                                                           **
 **                                                ... make the atoms dance   **
 **                                                                           **
 **            Copyright (C) by CP2K developers group (2000-2022)             **
 **                      J. Chem. Phys. 152, 194103 (2020)                    **
 **                                                                           **
 *******************************************************************************

 DFT| Spin unrestricted (spin-polarized) Kohn-Sham calculation               UKS
 DFT| Multiplicity                                                             2
 DFT| Number of spin states                                                    2
 DFT| Charge                                                                   0
 DFT| Self-interaction correction (SIC)                                       NO
 DFT| Cutoffs: density                                              1.000000E-10
 DFT|          gradient                                             1.000000E-10
 DFT|          tau                                                  1.000000E-10
 DFT|          cutoff_smoothing_range                               0.000000E+00
 DFT| XC density smoothing                                                  NONE
 DFT| XC derivatives                                                          PW

 FUNCTIONAL| PBE:
 FUNCTIONAL| J.P.Perdew, K.Burke, M.Ernzerhof, Phys. Rev. Letter, vol. 77, n 18,
 FUNCTIONAL|  pp. 3865-3868, (1996)sx=0.750sc=1.000{spin polarized}             


 QS| Method:                                                                 GPW
 QS| Density plane wave grid type                        NON-SPHERICAL FULLSPACE
 QS| Number of grid levels:                                                    4
 QS| Density cutoff [a.u.]:                                                250.0
 QS| Multi grid cutoff [a.u.]: 1) grid level                               250.0
 QS|                           2) grid level                                83.3
 QS|                           3) grid level                                27.8
 QS|                           4) grid level                                 9.3
 QS| Grid level progression factor:                                          3.0
 QS| Relative density cutoff [a.u.]:                                        25.0
 QS| Interaction thresholds: eps_pgf_orb:                                1.0E-06
 QS|                         eps_filter_matrix:                          0.0E+00
 QS|                         eps_core_charge:                            1.0E-14
 QS|                         eps_rho_gspace:                             1.0E-12
 QS|                         eps_rho_rspace:                             1.0E-12
 QS|                         eps_gvg_rspace:                             1.0E-06
 QS|                         eps_ppl:                                    1.0E-02
 QS|                         eps_ppnl:                                   1.0E-08


 ATOMIC KIND INFORMATION

  1. Atomic kind: C1                                    Number of atoms:       1

     Orbital Basis Set                                     DZVP-MOLOPT-SR-GTH-q4

       Number of orbital shell sets:                                           1
       Number of orbital shells:                                               5
       Number of primitive Cartesian functions:                                5
       Number of Cartesian basis functions:                                   14
       Number of spherical basis functions:                                   13
       Norm type:                                                              2

       Normalised Cartesian orbitals:

                        Set   Shell   Orbital            Exponent    Coefficient

                          1       1    2s                5.605331       0.322515
                                                         2.113016       0.213043
                                                         0.769911      -0.209686
                                                         0.348157      -0.219794
                                                         0.128212      -0.022789

                          1       2    3s                5.605331       0.552234
                                                         2.113016       0.082072
                                                         0.769911       0.007843
                                                         0.348157       0.136893
                                                         0.128212       0.074283

                          1       3    3px               5.605331      -0.703879
                                                         2.113016      -0.642521
                                                         0.769911      -0.374851
                                                         0.348157      -0.139743
                                                         0.128212      -0.027849
                          1       3    3py               5.605331      -0.703879
                                                         2.113016      -0.642521
                                                         0.769911      -0.374851
                                                         0.348157      -0.139743
                                                         0.128212      -0.027849
                          1       3    3pz               5.605331      -0.703879
                                                         2.113016      -0.642521
                                                         0.769911      -0.374851
                                                         0.348157      -0.139743
                                                         0.128212      -0.027849

                          1       4    4px               5.605331      -0.480376
                                                         2.113016      -0.552894
                                                         0.769911      -0.316145
                                                         0.348157       0.210505
                                                         0.128212       0.076095
                          1       4    4py               5.605331      -0.480376
                                                         2.113016      -0.552894
                                                         0.769911      -0.316145
                                                         0.348157       0.210505
                                                         0.128212       0.076095
                          1       4    4pz               5.605331      -0.480376
                                                         2.113016      -0.552894
                                                         0.769911      -0.316145
                                                         0.348157       0.210505
                                                         0.128212       0.076095

                          1       5    4dx2              5.605331       0.640026
                                                         2.113016       0.274300
                                                         0.769911       0.446711
                                                         0.348157       0.028674
                                                         0.128212       0.029790
                          1       5    4dxy              5.605331       1.108557
                                                         2.113016       0.475102
                                                         0.769911       0.773726
                                                         0.348157       0.049666
                                                         0.128212       0.051599
                          1       5    4dxz              5.605331       1.108557
                                                         2.113016       0.475102
                                                         0.769911       0.773726
                                                         0.348157       0.049666
                                                         0.128212       0.051599
                          1       5    4dy2              5.605331       0.640026
                                                         2.113016       0.274300
                                                         0.769911       0.446711
                                                         0.348157       0.028674
                                                         0.128212       0.029790
                          1       5    4dyz              5.605331       1.108557
                                                         2.113016       0.475102
                                                         0.769911       0.773726
                                                         0.348157       0.049666
                                                         0.128212       0.051599
                          1       5    4dz2              5.605331       0.640026
                                                         2.113016       0.274300
                                                         0.769911       0.446711
                                                         0.348157       0.028674
                                                         0.128212       0.029790

       Atomic covalent radius [Angstrom]:                                  0.770

       Atomic van der Waals radius [Angstrom]:                             1.700

     GTH Potential information for                                    GTH-PBE-q4

       Description:                       Goedecker-Teter-Hutter pseudopotential
                                           Goedecker et al., PRB 54, 1703 (1996)
                                          Hartwigsen et al., PRB 58, 3641 (1998)
                                                      Krack, TCA 114, 145 (2005)

       Gaussian exponent of the core charge distribution:               4.364419
       Electronic configuration (s p d ...):                               2   2

       Parameters of the local part of the GTH pseudopotential:

                          rloc        C1          C2          C3          C4
                        0.338471   -8.803674    1.339211

       Parameters of the non-local part of the GTH pseudopotential:

                   l      r(l)      h(i,j,l)

                   0    0.302576    9.622487
                   1    0.291507

  2. Atomic kind: C2                                    Number of atoms:       1

     Orbital Basis Set                                     DZVP-MOLOPT-SR-GTH-q4

       Number of orbital shell sets:                                           1
       Number of orbital shells:                                               5
       Number of primitive Cartesian functions:                                5
       Number of Cartesian basis functions:                                   14
       Number of spherical basis functions:                                   13
       Norm type:                                                              2

       Normalised Cartesian orbitals:

                        Set   Shell   Orbital            Exponent    Coefficient

                          1       1    2s                5.605331       0.322515
                                                         2.113016       0.213043
                                                         0.769911      -0.209686
                                                         0.348157      -0.219794
                                                         0.128212      -0.022789

                          1       2    3s                5.605331       0.552234
                                                         2.113016       0.082072
                                                         0.769911       0.007843
                                                         0.348157       0.136893
                                                         0.128212       0.074283

                          1       3    3px               5.605331      -0.703879
                                                         2.113016      -0.642521
                                                         0.769911      -0.374851
                                                         0.348157      -0.139743
                                                         0.128212      -0.027849
                          1       3    3py               5.605331      -0.703879
                                                         2.113016      -0.642521
                                                         0.769911      -0.374851
                                                         0.348157      -0.139743
                                                         0.128212      -0.027849
                          1       3    3pz               5.605331      -0.703879
                                                         2.113016      -0.642521
                                                         0.769911      -0.374851
                                                         0.348157      -0.139743
                                                         0.128212      -0.027849

                          1       4    4px               5.605331      -0.480376
                                                         2.113016      -0.552894
                                                         0.769911      -0.316145
                                                         0.348157       0.210505
                                                         0.128212       0.076095
                          1       4    4py               5.605331      -0.480376
                                                         2.113016      -0.552894
                                                         0.769911      -0.316145
                                                         0.348157       0.210505
                                                         0.128212       0.076095
                          1       4    4pz               5.605331      -0.480376
                                                         2.113016      -0.552894
                                                         0.769911      -0.316145
                                                         0.348157       0.210505
                                                         0.128212       0.076095

                          1       5    4dx2              5.605331       0.640026
                                                         2.113016       0.274300
                                                         0.769911       0.446711
                                                         0.348157       0.028674
                                                         0.128212       0.029790
                          1       5    4dxy              5.605331       1.108557
                                                         2.113016       0.475102
                                                         0.769911       0.773726
                                                         0.348157       0.049666
                                                         0.128212       0.051599
                          1       5    4dxz              5.605331       1.108557
                                                         2.113016       0.475102
                                                         0.769911       0.773726
                                                         0.348157       0.049666
                                                         0.128212       0.051599
                          1       5    4dy2              5.605331       0.640026
                                                         2.113016       0.274300
                                                         0.769911       0.446711
                                                         0.348157       0.028674
                                                         0.128212       0.029790
                          1       5    4dyz              5.605331       1.108557
                                                         2.113016       0.475102
                                                         0.769911       0.773726
                                                         0.348157       0.049666
                                                         0.128212       0.051599
                          1       5    4dz2              5.605331       0.640026
                                                         2.113016       0.274300
                                                         0.769911       0.446711
                                                         0.348157       0.028674
                                                         0.128212       0.029790

       Atomic covalent radius [Angstrom]:                                  0.770

       Atomic van der Waals radius [Angstrom]:                             1.700

     GTH Potential information for                                    GTH-PBE-q4

       Description:                       Goedecker-Teter-Hutter pseudopotential
                                           Goedecker et al., PRB 54, 1703 (1996)
                                          Hartwigsen et al., PRB 58, 3641 (1998)
                                                      Krack, TCA 114, 145 (2005)

       Gaussian exponent of the core charge distribution:               4.364419
       Electronic configuration (s p d ...):                               2   2

       Parameters of the local part of the GTH pseudopotential:

                          rloc        C1          C2          C3          C4
                        0.338471   -8.803674    1.339211

       Parameters of the non-local part of the GTH pseudopotential:

                   l      r(l)      h(i,j,l)

                   0    0.302576    9.622487
                   1    0.291507

  3. Atomic kind: C3                                    Number of atoms:       1

     Orbital Basis Set                                     DZVP-MOLOPT-SR-GTH-q4

       Number of orbital shell sets:                                           1
       Number of orbital shells:                                               5
       Number of primitive Cartesian functions:                                5
       Number of Cartesian basis functions:                                   14
       Number of spherical basis functions:                                   13
       Norm type:                                                              2

       Normalised Cartesian orbitals:

                        Set   Shell   Orbital            Exponent    Coefficient

                          1       1    2s                5.605331       0.322515
                                                         2.113016       0.213043
                                                         0.769911      -0.209686
                                                         0.348157      -0.219794
                                                         0.128212      -0.022789

                          1       2    3s                5.605331       0.552234
                                                         2.113016       0.082072
                                                         0.769911       0.007843
                                                         0.348157       0.136893
                                                         0.128212       0.074283

                          1       3    3px               5.605331      -0.703879
                                                         2.113016      -0.642521
                                                         0.769911      -0.374851
                                                         0.348157      -0.139743
                                                         0.128212      -0.027849
                          1       3    3py               5.605331      -0.703879
                                                         2.113016      -0.642521
                                                         0.769911      -0.374851
                                                         0.348157      -0.139743
                                                         0.128212      -0.027849
                          1       3    3pz               5.605331      -0.703879
                                                         2.113016      -0.642521
                                                         0.769911      -0.374851
                                                         0.348157      -0.139743
                                                         0.128212      -0.027849

                          1       4    4px               5.605331      -0.480376
                                                         2.113016      -0.552894
                                                         0.769911      -0.316145
                                                         0.348157       0.210505
                                                         0.128212       0.076095
                          1       4    4py               5.605331      -0.480376
                                                         2.113016      -0.552894
                                                         0.769911      -0.316145
                                                         0.348157       0.210505
                                                         0.128212       0.076095
                          1       4    4pz               5.605331      -0.480376
                                                         2.113016      -0.552894
                                                         0.769911      -0.316145
                                                         0.348157       0.210505
                                                         0.128212       0.076095

                          1       5    4dx2              5.605331       0.640026
                                                         2.113016       0.274300
                                                         0.769911       0.446711
                                                         0.348157       0.028674
                                                         0.128212       0.029790
                          1       5    4dxy              5.605331       1.108557
                                                         2.113016       0.475102
                                                         0.769911       0.773726
                                                         0.348157       0.049666
                                                         0.128212       0.051599
                          1       5    4dxz              5.605331       1.108557
                                                         2.113016       0.475102
                                                         0.769911       0.773726
                                                         0.348157       0.049666
                                                         0.128212       0.051599
                          1       5    4dy2              5.605331       0.640026
                                                         2.113016       0.274300
                                                         0.769911       0.446711
                                                         0.348157       0.028674
                                                         0.128212       0.029790
                          1       5    4dyz              5.605331       1.108557
                                                         2.113016       0.475102
                                                         0.769911       0.773726
                                                         0.348157       0.049666
                                                         0.128212       0.051599
                          1       5    4dz2              5.605331       0.640026
                                                         2.113016       0.274300
                                                         0.769911       0.446711
                                                         0.348157       0.028674
                                                         0.128212       0.029790

       Atomic covalent radius [Angstrom]:                                  0.770

       Atomic van der Waals radius [Angstrom]:                             1.700

     GTH Potential information for                                    GTH-PBE-q4

       Description:                       Goedecker-Teter-Hutter pseudopotential
                                           Goedecker et al., PRB 54, 1703 (1996)
                                          Hartwigsen et al., PRB 58, 3641 (1998)
                                                      Krack, TCA 114, 145 (2005)

       Gaussian exponent of the core charge distribution:               4.364419
       Electronic configuration (s p d ...):                               2   2

       Parameters of the local part of the GTH pseudopotential:

                          rloc        C1          C2          C3          C4
                        0.338471   -8.803674    1.339211

       Parameters of the non-local part of the GTH pseudopotential:

                   l      r(l)      h(i,j,l)

                   0    0.302576    9.622487
                   1    0.291507

  4. Atomic kind: C4                                    Number of atoms:       1

     Orbital Basis Set                                     DZVP-MOLOPT-SR-GTH-q4

       Number of orbital shell sets:                                           1
       Number of orbital shells:                                               5
       Number of primitive Cartesian functions:                                5
       Number of Cartesian basis functions:                                   14
       Number of spherical basis functions:                                   13
       Norm type:                                                              2

       Normalised Cartesian orbitals:

                        Set   Shell   Orbital            Exponent    Coefficient

                          1       1    2s                5.605331       0.322515
                                                         2.113016       0.213043
                                                         0.769911      -0.209686
                                                         0.348157      -0.219794
                                                         0.128212      -0.022789

                          1       2    3s                5.605331       0.552234
                                                         2.113016       0.082072
                                                         0.769911       0.007843
                                                         0.348157       0.136893
                                                         0.128212       0.074283

                          1       3    3px               5.605331      -0.703879
                                                         2.113016      -0.642521
                                                         0.769911      -0.374851
                                                         0.348157      -0.139743
                                                         0.128212      -0.027849
                          1       3    3py               5.605331      -0.703879
                                                         2.113016      -0.642521
                                                         0.769911      -0.374851
                                                         0.348157      -0.139743
                                                         0.128212      -0.027849
                          1       3    3pz               5.605331      -0.703879
                                                         2.113016      -0.642521
                                                         0.769911      -0.374851
                                                         0.348157      -0.139743
                                                         0.128212      -0.027849

                          1       4    4px               5.605331      -0.480376
                                                         2.113016      -0.552894
                                                         0.769911      -0.316145
                                                         0.348157       0.210505
                                                         0.128212       0.076095
                          1       4    4py               5.605331      -0.480376
                                                         2.113016      -0.552894
                                                         0.769911      -0.316145
                                                         0.348157       0.210505
                                                         0.128212       0.076095
                          1       4    4pz               5.605331      -0.480376
                                                         2.113016      -0.552894
                                                         0.769911      -0.316145
                                                         0.348157       0.210505
                                                         0.128212       0.076095

                          1       5    4dx2              5.605331       0.640026
                                                         2.113016       0.274300
                                                         0.769911       0.446711
                                                         0.348157       0.028674
                                                         0.128212       0.029790
                          1       5    4dxy              5.605331       1.108557
                                                         2.113016       0.475102
                                                         0.769911       0.773726
                                                         0.348157       0.049666
                                                         0.128212       0.051599
                          1       5    4dxz              5.605331       1.108557
                                                         2.113016       0.475102
                                                         0.769911       0.773726
                                                         0.348157       0.049666
                                                         0.128212       0.051599
                          1       5    4dy2              5.605331       0.640026
                                                         2.113016       0.274300
                                                         0.769911       0.446711
                                                         0.348157       0.028674
                                                         0.128212       0.029790
                          1       5    4dyz              5.605331       1.108557
                                                         2.113016       0.475102
                                                         0.769911       0.773726
                                                         0.348157       0.049666
                                                         0.128212       0.051599
                          1       5    4dz2              5.605331       0.640026
                                                         2.113016       0.274300
                                                         0.769911       0.446711
                                                         0.348157       0.028674
                                                         0.128212       0.029790

       Atomic covalent radius [Angstrom]:                                  0.770

       Atomic van der Waals radius [Angstrom]:                             1.700

     GTH Potential information for                                    GTH-PBE-q4

       Description:                       Goedecker-Teter-Hutter pseudopotential
                                           Goedecker et al., PRB 54, 1703 (1996)
                                          Hartwigsen et al., PRB 58, 3641 (1998)
                                                      Krack, TCA 114, 145 (2005)

       Gaussian exponent of the core charge distribution:               4.364419
       Electronic configuration (s p d ...):                               2   2

       Parameters of the local part of the GTH pseudopotential:

                          rloc        C1          C2          C3          C4
                        0.338471   -8.803674    1.339211

       Parameters of the non-local part of the GTH pseudopotential:

                   l      r(l)      h(i,j,l)

                   0    0.302576    9.622487
                   1    0.291507

  5. Atomic kind: C5                                    Number of atoms:       1

     Orbital Basis Set                                     DZVP-MOLOPT-SR-GTH-q4

       Number of orbital shell sets:                                           1
       Number of orbital shells:                                               5
       Number of primitive Cartesian functions:                                5
       Number of Cartesian basis functions:                                   14
       Number of spherical basis functions:                                   13
       Norm type:                                                              2

       Normalised Cartesian orbitals:

                        Set   Shell   Orbital            Exponent    Coefficient

                          1       1    2s                5.605331       0.322515
                                                         2.113016       0.213043
                                                         0.769911      -0.209686
                                                         0.348157      -0.219794
                                                         0.128212      -0.022789

                          1       2    3s                5.605331       0.552234
                                                         2.113016       0.082072
                                                         0.769911       0.007843
                                                         0.348157       0.136893
                                                         0.128212       0.074283

                          1       3    3px               5.605331      -0.703879
                                                         2.113016      -0.642521
                                                         0.769911      -0.374851
                                                         0.348157      -0.139743
                                                         0.128212      -0.027849
                          1       3    3py               5.605331      -0.703879
                                                         2.113016      -0.642521
                                                         0.769911      -0.374851
                                                         0.348157      -0.139743
                                                         0.128212      -0.027849
                          1       3    3pz               5.605331      -0.703879
                                                         2.113016      -0.642521
                                                         0.769911      -0.374851
                                                         0.348157      -0.139743
                                                         0.128212      -0.027849

                          1       4    4px               5.605331      -0.480376
                                                         2.113016      -0.552894
                                                         0.769911      -0.316145
                                                         0.348157       0.210505
                                                         0.128212       0.076095
                          1       4    4py               5.605331      -0.480376
                                                         2.113016      -0.552894
                                                         0.769911      -0.316145
                                                         0.348157       0.210505
                                                         0.128212       0.076095
                          1       4    4pz               5.605331      -0.480376
                                                         2.113016      -0.552894
                                                         0.769911      -0.316145
                                                         0.348157       0.210505
                                                         0.128212       0.076095

                          1       5    4dx2              5.605331       0.640026
                                                         2.113016       0.274300
                                                         0.769911       0.446711
                                                         0.348157       0.028674
                                                         0.128212       0.029790
                          1       5    4dxy              5.605331       1.108557
                                                         2.113016       0.475102
                                                         0.769911       0.773726
                                                         0.348157       0.049666
                                                         0.128212       0.051599
                          1       5    4dxz              5.605331       1.108557
                                                         2.113016       0.475102
                                                         0.769911       0.773726
                                                         0.348157       0.049666
                                                         0.128212       0.051599
                          1       5    4dy2              5.605331       0.640026
                                                         2.113016       0.274300
                                                         0.769911       0.446711
                                                         0.348157       0.028674
                                                         0.128212       0.029790
                          1       5    4dyz              5.605331       1.108557
                                                         2.113016       0.475102
                                                         0.769911       0.773726
                                                         0.348157       0.049666
                                                         0.128212       0.051599
                          1       5    4dz2              5.605331       0.640026
                                                         2.113016       0.274300
                                                         0.769911       0.446711
                                                         0.348157       0.028674
                                                         0.128212       0.029790

       Atomic covalent radius [Angstrom]:                                  0.770

       Atomic van der Waals radius [Angstrom]:                             1.700

     GTH Potential information for                                    GTH-PBE-q4

       Description:                       Goedecker-Teter-Hutter pseudopotential
                                           Goedecker et al., PRB 54, 1703 (1996)
                                          Hartwigsen et al., PRB 58, 3641 (1998)
                                                      Krack, TCA 114, 145 (2005)

       Gaussian exponent of the core charge distribution:               4.364419
       Electronic configuration (s p d ...):                               2   2

       Parameters of the local part of the GTH pseudopotential:

                          rloc        C1          C2          C3          C4
                        0.338471   -8.803674    1.339211

       Parameters of the non-local part of the GTH pseudopotential:

                   l      r(l)      h(i,j,l)

                   0    0.302576    9.622487
                   1    0.291507

  6. Atomic kind: C6                                    Number of atoms:       1

     Orbital Basis Set                                     DZVP-MOLOPT-SR-GTH-q4

       Number of orbital shell sets:                                           1
       Number of orbital shells:                                               5
       Number of primitive Cartesian functions:                                5
       Number of Cartesian basis functions:                                   14
       Number of spherical basis functions:                                   13
       Norm type:                                                              2

       Normalised Cartesian orbitals:

                        Set   Shell   Orbital            Exponent    Coefficient

                          1       1    2s                5.605331       0.322515
                                                         2.113016       0.213043
                                                         0.769911      -0.209686
                                                         0.348157      -0.219794
                                                         0.128212      -0.022789

                          1       2    3s                5.605331       0.552234
                                                         2.113016       0.082072
                                                         0.769911       0.007843
                                                         0.348157       0.136893
                                                         0.128212       0.074283

                          1       3    3px               5.605331      -0.703879
                                                         2.113016      -0.642521
                                                         0.769911      -0.374851
                                                         0.348157      -0.139743
                                                         0.128212      -0.027849
                          1       3    3py               5.605331      -0.703879
                                                         2.113016      -0.642521
                                                         0.769911      -0.374851
                                                         0.348157      -0.139743
                                                         0.128212      -0.027849
                          1       3    3pz               5.605331      -0.703879
                                                         2.113016      -0.642521
                                                         0.769911      -0.374851
                                                         0.348157      -0.139743
                                                         0.128212      -0.027849

                          1       4    4px               5.605331      -0.480376
                                                         2.113016      -0.552894
                                                         0.769911      -0.316145
                                                         0.348157       0.210505
                                                         0.128212       0.076095
                          1       4    4py               5.605331      -0.480376
                                                         2.113016      -0.552894
                                                         0.769911      -0.316145
                                                         0.348157       0.210505
                                                         0.128212       0.076095
                          1       4    4pz               5.605331      -0.480376
                                                         2.113016      -0.552894
                                                         0.769911      -0.316145
                                                         0.348157       0.210505
                                                         0.128212       0.076095

                          1       5    4dx2              5.605331       0.640026
                                                         2.113016       0.274300
                                                         0.769911       0.446711
                                                         0.348157       0.028674
                                                         0.128212       0.029790
                          1       5    4dxy              5.605331       1.108557
                                                         2.113016       0.475102
                                                         0.769911       0.773726
                                                         0.348157       0.049666
                                                         0.128212       0.051599
                          1       5    4dxz              5.605331       1.108557
                                                         2.113016       0.475102
                                                         0.769911       0.773726
                                                         0.348157       0.049666
                                                         0.128212       0.051599
                          1       5    4dy2              5.605331       0.640026
                                                         2.113016       0.274300
                                                         0.769911       0.446711
                                                         0.348157       0.028674
                                                         0.128212       0.029790
                          1       5    4dyz              5.605331       1.108557
                                                         2.113016       0.475102
                                                         0.769911       0.773726
                                                         0.348157       0.049666
                                                         0.128212       0.051599
                          1       5    4dz2              5.605331       0.640026
                                                         2.113016       0.274300
                                                         0.769911       0.446711
                                                         0.348157       0.028674
                                                         0.128212       0.029790

       Atomic covalent radius [Angstrom]:                                  0.770

       Atomic van der Waals radius [Angstrom]:                             1.700

     GTH Potential information for                                    GTH-PBE-q4

       Description:                       Goedecker-Teter-Hutter pseudopotential
                                           Goedecker et al., PRB 54, 1703 (1996)
                                          Hartwigsen et al., PRB 58, 3641 (1998)
                                                      Krack, TCA 114, 145 (2005)

       Gaussian exponent of the core charge distribution:               4.364419
       Electronic configuration (s p d ...):                               2   2

       Parameters of the local part of the GTH pseudopotential:

                          rloc        C1          C2          C3          C4
                        0.338471   -8.803674    1.339211

       Parameters of the non-local part of the GTH pseudopotential:

                   l      r(l)      h(i,j,l)

                   0    0.302576    9.622487
                   1    0.291507

  7. Atomic kind: C7                                    Number of atoms:       1

     Orbital Basis Set                                     DZVP-MOLOPT-SR-GTH-q4

       Number of orbital shell sets:                                           1
       Number of orbital shells:                                               5
       Number of primitive Cartesian functions:                                5
       Number of Cartesian basis functions:                                   14
       Number of spherical basis functions:                                   13
       Norm type:                                                              2

       Normalised Cartesian orbitals:

                        Set   Shell   Orbital            Exponent    Coefficient

                          1       1    2s                5.605331       0.322515
                                                         2.113016       0.213043
                                                         0.769911      -0.209686
                                                         0.348157      -0.219794
                                                         0.128212      -0.022789

                          1       2    3s                5.605331       0.552234
                                                         2.113016       0.082072
                                                         0.769911       0.007843
                                                         0.348157       0.136893
                                                         0.128212       0.074283

                          1       3    3px               5.605331      -0.703879
                                                         2.113016      -0.642521
                                                         0.769911      -0.374851
                                                         0.348157      -0.139743
                                                         0.128212      -0.027849
                          1       3    3py               5.605331      -0.703879
                                                         2.113016      -0.642521
                                                         0.769911      -0.374851
                                                         0.348157      -0.139743
                                                         0.128212      -0.027849
                          1       3    3pz               5.605331      -0.703879
                                                         2.113016      -0.642521
                                                         0.769911      -0.374851
                                                         0.348157      -0.139743
                                                         0.128212      -0.027849

                          1       4    4px               5.605331      -0.480376
                                                         2.113016      -0.552894
                                                         0.769911      -0.316145
                                                         0.348157       0.210505
                                                         0.128212       0.076095
                          1       4    4py               5.605331      -0.480376
                                                         2.113016      -0.552894
                                                         0.769911      -0.316145
                                                         0.348157       0.210505
                                                         0.128212       0.076095
                          1       4    4pz               5.605331      -0.480376
                                                         2.113016      -0.552894
                                                         0.769911      -0.316145
                                                         0.348157       0.210505
                                                         0.128212       0.076095

                          1       5    4dx2              5.605331       0.640026
                                                         2.113016       0.274300
                                                         0.769911       0.446711
                                                         0.348157       0.028674
                                                         0.128212       0.029790
                          1       5    4dxy              5.605331       1.108557
                                                         2.113016       0.475102
                                                         0.769911       0.773726
                                                         0.348157       0.049666
                                                         0.128212       0.051599
                          1       5    4dxz              5.605331       1.108557
                                                         2.113016       0.475102
                                                         0.769911       0.773726
                                                         0.348157       0.049666
                                                         0.128212       0.051599
                          1       5    4dy2              5.605331       0.640026
                                                         2.113016       0.274300
                                                         0.769911       0.446711
                                                         0.348157       0.028674
                                                         0.128212       0.029790
                          1       5    4dyz              5.605331       1.108557
                                                         2.113016       0.475102
                                                         0.769911       0.773726
                                                         0.348157       0.049666
                                                         0.128212       0.051599
                          1       5    4dz2              5.605331       0.640026
                                                         2.113016       0.274300
                                                         0.769911       0.446711
                                                         0.348157       0.028674
                                                         0.128212       0.029790

       Atomic covalent radius [Angstrom]:                                  0.770

       Atomic van der Waals radius [Angstrom]:                             1.700

     GTH Potential information for                                    GTH-PBE-q4

       Description:                       Goedecker-Teter-Hutter pseudopotential
                                           Goedecker et al., PRB 54, 1703 (1996)
                                          Hartwigsen et al., PRB 58, 3641 (1998)
                                                      Krack, TCA 114, 145 (2005)

       Gaussian exponent of the core charge distribution:               4.364419
       Electronic configuration (s p d ...):                               2   2

       Parameters of the local part of the GTH pseudopotential:

                          rloc        C1          C2          C3          C4
                        0.338471   -8.803674    1.339211

       Parameters of the non-local part of the GTH pseudopotential:

                   l      r(l)      h(i,j,l)

                   0    0.302576    9.622487
                   1    0.291507

  8. Atomic kind: C8                                    Number of atoms:       1

     Orbital Basis Set                                     DZVP-MOLOPT-SR-GTH-q4

       Number of orbital shell sets:                                           1
       Number of orbital shells:                                               5
       Number of primitive Cartesian functions:                                5
       Number of Cartesian basis functions:                                   14
       Number of spherical basis functions:                                   13
       Norm type:                                                              2

       Normalised Cartesian orbitals:

                        Set   Shell   Orbital            Exponent    Coefficient

                          1       1    2s                5.605331       0.322515
                                                         2.113016       0.213043
                                                         0.769911      -0.209686
                                                         0.348157      -0.219794
                                                         0.128212      -0.022789

                          1       2    3s                5.605331       0.552234
                                                         2.113016       0.082072
                                                         0.769911       0.007843
                                                         0.348157       0.136893
                                                         0.128212       0.074283

                          1       3    3px               5.605331      -0.703879
                                                         2.113016      -0.642521
                                                         0.769911      -0.374851
                                                         0.348157      -0.139743
                                                         0.128212      -0.027849
                          1       3    3py               5.605331      -0.703879
                                                         2.113016      -0.642521
                                                         0.769911      -0.374851
                                                         0.348157      -0.139743
                                                         0.128212      -0.027849
                          1       3    3pz               5.605331      -0.703879
                                                         2.113016      -0.642521
                                                         0.769911      -0.374851
                                                         0.348157      -0.139743
                                                         0.128212      -0.027849

                          1       4    4px               5.605331      -0.480376
                                                         2.113016      -0.552894
                                                         0.769911      -0.316145
                                                         0.348157       0.210505
                                                         0.128212       0.076095
                          1       4    4py               5.605331      -0.480376
                                                         2.113016      -0.552894
                                                         0.769911      -0.316145
                                                         0.348157       0.210505
                                                         0.128212       0.076095
                          1       4    4pz               5.605331      -0.480376
                                                         2.113016      -0.552894
                                                         0.769911      -0.316145
                                                         0.348157       0.210505
                                                         0.128212       0.076095

                          1       5    4dx2              5.605331       0.640026
                                                         2.113016       0.274300
                                                         0.769911       0.446711
                                                         0.348157       0.028674
                                                         0.128212       0.029790
                          1       5    4dxy              5.605331       1.108557
                                                         2.113016       0.475102
                                                         0.769911       0.773726
                                                         0.348157       0.049666
                                                         0.128212       0.051599
                          1       5    4dxz              5.605331       1.108557
                                                         2.113016       0.475102
                                                         0.769911       0.773726
                                                         0.348157       0.049666
                                                         0.128212       0.051599
                          1       5    4dy2              5.605331       0.640026
                                                         2.113016       0.274300
                                                         0.769911       0.446711
                                                         0.348157       0.028674
                                                         0.128212       0.029790
                          1       5    4dyz              5.605331       1.108557
                                                         2.113016       0.475102
                                                         0.769911       0.773726
                                                         0.348157       0.049666
                                                         0.128212       0.051599
                          1       5    4dz2              5.605331       0.640026
                                                         2.113016       0.274300
                                                         0.769911       0.446711
                                                         0.348157       0.028674
                                                         0.128212       0.029790

       Atomic covalent radius [Angstrom]:                                  0.770

       Atomic van der Waals radius [Angstrom]:                             1.700

     GTH Potential information for                                    GTH-PBE-q4

       Description:                       Goedecker-Teter-Hutter pseudopotential
                                           Goedecker et al., PRB 54, 1703 (1996)
                                          Hartwigsen et al., PRB 58, 3641 (1998)
                                                      Krack, TCA 114, 145 (2005)

       Gaussian exponent of the core charge distribution:               4.364419
       Electronic configuration (s p d ...):                               2   2

       Parameters of the local part of the GTH pseudopotential:

                          rloc        C1          C2          C3          C4
                        0.338471   -8.803674    1.339211

       Parameters of the non-local part of the GTH pseudopotential:

                   l      r(l)      h(i,j,l)

                   0    0.302576    9.622487
                   1    0.291507

  9. Atomic kind: C9                                    Number of atoms:       1

     Orbital Basis Set                                     DZVP-MOLOPT-SR-GTH-q4

       Number of orbital shell sets:                                           1
       Number of orbital shells:                                               5
       Number of primitive Cartesian functions:                                5
       Number of Cartesian basis functions:                                   14
       Number of spherical basis functions:                                   13
       Norm type:                                                              2

       Normalised Cartesian orbitals:

                        Set   Shell   Orbital            Exponent    Coefficient

                          1       1    2s                5.605331       0.322515
                                                         2.113016       0.213043
                                                         0.769911      -0.209686
                                                         0.348157      -0.219794
                                                         0.128212      -0.022789

                          1       2    3s                5.605331       0.552234
                                                         2.113016       0.082072
                                                         0.769911       0.007843
                                                         0.348157       0.136893
                                                         0.128212       0.074283

                          1       3    3px               5.605331      -0.703879
                                                         2.113016      -0.642521
                                                         0.769911      -0.374851
                                                         0.348157      -0.139743
                                                         0.128212      -0.027849
                          1       3    3py               5.605331      -0.703879
                                                         2.113016      -0.642521
                                                         0.769911      -0.374851
                                                         0.348157      -0.139743
                                                         0.128212      -0.027849
                          1       3    3pz               5.605331      -0.703879
                                                         2.113016      -0.642521
                                                         0.769911      -0.374851
                                                         0.348157      -0.139743
                                                         0.128212      -0.027849

                          1       4    4px               5.605331      -0.480376
                                                         2.113016      -0.552894
                                                         0.769911      -0.316145
                                                         0.348157       0.210505
                                                         0.128212       0.076095
                          1       4    4py               5.605331      -0.480376
                                                         2.113016      -0.552894
                                                         0.769911      -0.316145
                                                         0.348157       0.210505
                                                         0.128212       0.076095
                          1       4    4pz               5.605331      -0.480376
                                                         2.113016      -0.552894
[...]
 flops    17 x    42 x     1              9996000       0.0%    100.0%      0.0%
 flops    42 x    17 x     1              9996000       0.0%    100.0%      0.0%
 flops    17 x    13 x    18             11098620       0.0%    100.0%      0.0%
 flops    13 x    17 x    18             11098620       0.0%    100.0%      0.0%
 flops    17 x    13 x    19             11715210       0.0%    100.0%      0.0%
 flops    13 x    17 x    19             11715210       0.0%    100.0%      0.0%
 flops    17 x     1 x     5             28940800       0.0%    100.0%      0.0%
 flops     5 x     1 x    17             28940800       0.0%    100.0%      0.0%
 flops    13 x     5 x     1             33852000       0.0%    100.0%      0.0%
 flops     5 x    13 x     1             33852000       0.0%    100.0%      0.0%
 flops    17 x    17 x     1             44506000       0.0%    100.0%      0.0%
 flops    42 x     1 x    17             60775680       0.0%    100.0%      0.0%
 flops    13 x    42 x     1             70324800       0.0%    100.0%      0.0%
 flops    42 x    13 x     1             71853600       0.0%    100.0%      0.0%
 flops    13 x    13 x    18             79779492       0.0%    100.0%      0.0%
 flops    13 x    13 x    19             84211686       0.0%    100.0%      0.0%
 flops    13 x     1 x     5            205820160       0.0%    100.0%      0.0%
 flops     5 x     1 x    13            205820160       0.0%    100.0%      0.0%
 flops    17 x     1 x    17            245996800       0.0%    100.0%      0.0%
 flops    17 x    13 x     1            287742000       0.0%    100.0%      0.0%
 flops    13 x    17 x     1            287742000       0.0%    100.0%      0.0%
 flops     5 x     5 x    32            314368000       0.0%    100.0%      0.0%
 flops    42 x     1 x    13            432222336       0.0%    100.0%      0.0%
 flops     5 x    42 x    32            528138240       0.0%    100.0%      0.0%
 flops    42 x     5 x    32            528138240       0.0%    100.0%      0.0%
 flops     5 x    32 x     5           1529088000       0.0%    100.0%      0.0%
 flops    17 x     1 x    13           1749471360       0.0%    100.0%      0.0%
 flops    13 x     1 x    17           1749471360       0.0%    100.0%      0.0%
 flops    13 x    13 x     1           2068357200       0.0%    100.0%      0.0%
 flops    17 x     5 x    32           2137702400       0.0%    100.0%      0.0%
 flops     5 x    17 x    32           2137702400       0.0%    100.0%      0.0%
 flops    42 x    42 x    32           2218180608       0.0%    100.0%      0.0%
 flops    42 x    32 x     5           3211084800       0.0%    100.0%      0.0%
 flops    17 x    42 x    32           4489175040       0.0%    100.0%      0.0%
 flops    42 x    17 x    32           4489175040       0.0%    100.0%      0.0%
 flops    13 x     1 x    13          12441828672       0.0%    100.0%      0.0%
 flops    17 x    32 x     5          12997248000       0.0%    100.0%      0.0%
 flops     5 x    32 x    17          12997248000       0.0%    100.0%      0.0%
 flops    13 x     5 x    32          15202836480       0.0%    100.0%      0.0%
 flops     5 x    13 x    32          15202836480       0.0%    100.0%      0.0%
 flops    17 x    17 x    32          19987517440       0.0%    100.0%      0.0%
 flops    42 x    32 x    17          27294220800       0.0%    100.0%      0.0%
 flops    13 x    42 x    32          31582666752       0.0%    100.0%      0.0%
 flops    42 x    13 x    32          32269246464       0.0%    100.0%      0.0%
 flops    13 x    32 x     5          92433369600       0.0%    100.0%      0.0%
 flops     5 x    32 x    13          92433369600       0.0%    100.0%      0.0%
 flops    17 x    32 x    17         110476608000       0.0%    100.0%      0.0%
 flops    17 x    13 x    32         129224110080       0.0%    100.0%      0.0%
 flops    13 x    17 x    32         129224110080       0.0%    100.0%      0.0%
 flops    42 x    32 x    13         194110076160       0.0%    100.0%      0.0%
 flops    17 x    32 x    13         785683641600       0.0%    100.0%      0.0%
 flops    13 x    32 x    17         785683641600       0.0%    100.0%      0.0%
 flops    13 x    13 x    32         928893308928       0.0%    100.0%      0.0%
 flops    13 x    32 x    13        5587597192320       0.0%    100.0%      0.0%
 flops inhomo. stacks                334707260160     100.0%      0.0%      0.0%
 flops total                         9.379912E+12       3.6%     96.4%      0.0%
 flops max/rank                    170.722286E+09       6.8%     93.2%      0.0%
 matmuls inhomo. stacks                   6910488     100.0%      0.0%      0.0%
 matmuls total                          870256548       0.8%     99.2%      0.0%
 number of processed stacks              50177020       1.0%     99.0%      0.0%
 average stack size                                    13.5      17.4       0.0
 marketing flops                    10.570690E+12
 -------------------------------------------------------------------------------
 # multiplications                          11321
 max memory usage/rank               3.759227E+09
 # max total images/rank                        2
 # max 3D layers                                1
 # MPI messages exchanged                42023552
 MPI messages size (bytes):
  total size                         2.435317E+12
  min size                           0.000000E+00
  max size                         161.784000E+03
  average size                      57.951246E+03
 MPI breakdown and total messages size (bytes):
             size <=      128            13633872                        0
       128 < size <=     8192              801248                698343184
      8192 < size <=    32768             8874704             204611232848
     32768 < size <=   131072            11433403            1216194145656
    131072 < size <=  4194304             7280325            1014667836000
   4194304 < size <= 16777216                   0                        0
  16777216 < size                               0                        0
 -------------------------------------------------------------------------------

 *** WARNING in dbcsr_mm.F:290 :: Using a non-square number of MPI ranks ***
 *** might lead to poor performance. Used ranks: 128 Suggested: 121 256  ***

 -------------------------------------------------------------------------------
 -                                                                             -
 -                      DBCSR MESSAGE PASSING PERFORMANCE                      -
 -                                                                             -
 -------------------------------------------------------------------------------
 ROUTINE             CALLS      AVE VOLUME [Bytes]
 MP_Bcast               89                     12.
 MP_Allreduce        42582                      8.
 MP_Alltoall        254482                  52812.
 MP_ISend           724544                  31070.
 MP_IRecv           724544                  31130.
 -------------------------------------------------------------------------------

 -------------------------------------------------------------------------------
 -                                                                             -
 -                                DBM STATISTICS                               -
 -                                                                             -
 -------------------------------------------------------------------------------
    M  x    N  x    K                                          COUNT     PERCENT
 -------------------------------------------------------------------------------

 -------------------------------------------------------------------------------
 -                                                                             -
 -                                GRID STATISTICS                              -
 -                                                                             -
 -------------------------------------------------------------------------------
 LP    KERNEL             BACKEND                              COUNT     PERCENT
 4     collocate general  REF                              101878656      45.86%
 4     integrate general  REF                              101589228      45.73%
 3     collocate general  REF                                6681440       3.01%
 3     integrate general  REF                                6661980       3.00%
 5     collocate general  REF                                2317568       1.04%
 5     integrate general  REF                                2310984       1.04%
 2     collocate general  REF                                 299056       0.13%
 2     integrate general  REF                                 255528       0.12%
 6     collocate general  REF                                  50688       0.02%
 6     integrate general  REF                                  50544       0.02%
 0     collocate general  REF                                  27648       0.01%
 0     integrate general  REF                                  27648       0.01%
 1     collocate general  REF                                   1600       0.00%
 -------------------------------------------------------------------------------

 MEMORY| Estimated peak process memory [MiB]                                3589

 -------------------------------------------------------------------------------
 ----                             MULTIGRID INFO                            ----
 -------------------------------------------------------------------------------
 count for grid        1:     1891668314          cutoff [a.u.]          250.00
 count for grid        2:     1431631732          cutoff [a.u.]           83.33
 count for grid        3:      899041826          cutoff [a.u.]           27.78
 count for grid        4:      231612848          cutoff [a.u.]            9.26
 total gridlevel count  :     4453954720

 -------------------------------------------------------------------------------
 -                                                                             -
 -                         MESSAGE PASSING PERFORMANCE                         -
 -                                                                             -
 -------------------------------------------------------------------------------

 ROUTINE             CALLS      AVE VOLUME [Bytes]
 MP_Group                8
 MP_Bcast             9351               17888391.
 MP_Allreduce       220960                     83.
 MP_Sync             13069
 MP_Alltoall         32225                5245674.
 MP_SendRecv        377952                  29184.
 MP_ISendRecv      1069086                  72933.
 MP_Wait           1344792
 MP_comm_split         220
 MP_ISend           237296                 359482.
 MP_IRecv           243878                 349815.
 MP_Recv              2930                 167372.
 MP_Write_All           80                 284400.
 -------------------------------------------------------------------------------


 -------------------------------------------------------------------------------
 -                                                                             -
 -                           R E F E R E N C E S                               -
 -                                                                             -
 -------------------------------------------------------------------------------
 
 CP2K version 2023.1, the CP2K developers group (2023).
 CP2K is freely available from https://www.cp2k.org/ .

 Kuehne,Thomas D.; Iannuzzi,Marcella; Del Ben,Mauro;
 Rybkin,Vladimir V.; Seewald,Patrick; Stein,Frederick; Laino,Teodoro;
 Khaliullin,Rustam Z.; Schuett,Ole; Schiffmann,Florian; Golze,Dorothea;
 Wilhelm,Jan; Chulkov,Sergey; Bani-Hashemian,Mohammad Hossein;
 Weber,Valery; Borstnik,Urban; Taillefumier,Mathieu;
 Jakobovits,Alice Shoshana; Lazzaro,Alfio; Pabst,Hans; Mueller,Tiziano;
 Schade,Robert; Guidon,Manuel; Andermatt,Samuel; Holmberg,Nico;
 Schenter,Gregory K.; Hehn,Anna; Bussy,Augustin; Belleflamme,Fabian;
 Tabacchi,Gloria; Gloess,Andreas; Lass,Michael; Bethune,Iain;
 Mundy,Christopher J.; Plessl,Christian; Watkins,Matt;
 VandeVondele,Joost; Krack,Matthias; Hutter,Juerg. 
 The Journal of Chemical Physics, 152 (19), (2020). 
 CP2K: An electronic structure and molecular dynamics software package -
 Quickstep: Efficient and accurate electronic structure calculations.
 https://doi.org/10.1063/5.0007045

 Schuett, Ole; Messmer, Peter; Hutter, Juerg; VandeVondele, Joost. 
 Electronic Structure Calculations on Graphics Processing Units, John
 Wiley & Sons, Ltd, 173-190 (2016). 
 GPU-Accelerated Sparse Matrix-Matrix Multiplication for
 Linear Scaling Density Functional Theory.
 https://doi.org/10.1002/9781118670712.ch8

 Heinecke, A; Henry, G; Hutchinson, M; Pabst, H. 
 Proceedings of Intl. Supercomputing Conference, 981-991 (2016). 
 LIBXSMM: Accelerating Small Matrix Multiplications
 by Runtime Code Generation.
 https://doi.org/10.1109/SC.2016.83

 Borstnik, U; VandeVondele, J; Weber, V; Hutter, J. 
 PARALLEL COMPUTING, 40 (5-6), 47-58 (2014). 
 Sparse matrix multiplication: The distributed block-compressed sparse
 row library.
 https://doi.org/10.1016/j.parco.2014.03.012

 Hutter, J; Iannuzzi, M; Schiffmann, F; VandeVondele, J. 
 WIREs Comput Mol Sci., 4 (1), 15-25 (2014). 
 CP2K: atomistic simulations of condensed matter systems.
 https://doi.org/10.1002/wcms.1159

 Guidon, M; Hutter, J; VandeVondele, J. 
 JOURNAL OF CHEMICAL THEORY AND COMPUTATION, 5 (11), 3010-3021 (2009). 
 Robust Periodic Hartree-Fock Exchange for Large-Scale Simulations Using
 Gaussian Basis Sets.
 https://doi.org/10.1021/ct900494g

 Guidon, M; Schiffmann, F; Hutter, J; VandeVondele, J. 
 JOURNAL OF CHEMICAL PHYSICS, 128 (21), 214104 (2008). 
 Ab initio molecular dynamics using hybrid density functionals.
 https://doi.org/10.1063/1.2931945

 VandeVondele, J; Hutter, J. 
 JOURNAL OF CHEMICAL PHYSICS, 127 (11), 114105 (2007). 
 Gaussian basis sets for accurate calculations on molecular systems in
 gas and condensed phases.
 https://doi.org/10.1063/1.2770708

 Krack, M. 
 THEORETICAL CHEMISTRY ACCOUNTS, 114 (1-3), 145-152 (2005). 
 Pseudopotentials for H to Kr optimized for gradient-corrected
 exchange-correlation functionals.
 https://doi.org/10.1007/s00214-005-0655-y

 VandeVondele, J; Krack, M; Mohamed, F; Parrinello, M; Chassaing, T;
 Hutter, J. COMPUTER PHYSICS COMMUNICATIONS, 167 (2), 103-128 (2005). 
 QUICKSTEP: Fast and accurate density functional calculations using a
 mixed Gaussian and plane waves approach.
 https://doi.org/10.1016/j.cpc.2004.12.014

 Frigo, M; Johnson, SG. 
 PROCEEDINGS OF THE IEEE, 93 (2), 216-231 (2005). 
 The design and implementation of FFTW3.
 https://doi.org/10.1109/JPROC.2004.840301

 Iannuzzi, M; Chassaing, T; Wallman, T; Hutter, J. 
 CHIMIA, 59 (7-8), 499-503 (2005). 
 Ground and excited state density functional calculations with the
 Gaussian and augmented-plane-wave method.
 https://doi.org/10.2533/000942905777676164

 Martin,Richard L.. 
 The Journal of Chemical Physics, 118 (11), 4775-4777 (2003). 
 Natural transition orbitals.
 https://doi.org/10.1063/1.1558471

 Hartwigsen, C; Goedecker, S; Hutter, J. 
 PHYSICAL REVIEW B, 58 (7), 3641-3662 (1998). 
 Relativistic separable dual-space Gaussian pseudopotentials from H to Rn.
 https://doi.org/10.1103/PhysRevB.58.3641

 Lippert, G; Hutter, J; Parrinello, M. 
 MOLECULAR PHYSICS, 92 (3), 477-487 (1997). 
 A hybrid Gaussian and plane wave density functional scheme.
 https://doi.org/10.1080/002689797170220

 Perdew, JP; Burke, K; Ernzerhof, M. 
 PHYSICAL REVIEW LETTERS, 77 (18), 3865-3868 (1996). 
 Generalized gradient approximation made simple.
 https://doi.org/10.1103/PhysRevLett.77.3865

 Goedecker, S; Teter, M; Hutter, J. 
 PHYSICAL REVIEW B, 54 (3), 1703-1710 (1996). 
 Separable dual-space Gaussian pseudopotentials.
 https://doi.org/10.1103/PhysRevB.54.1703


 -------------------------------------------------------------------------------
 -                                                                             -
 -                                T I M I N G                                  -
 -                                                                             -
 -------------------------------------------------------------------------------
 SUBROUTINE                       CALLS  ASD         SELF TIME        TOTAL TIME
                                MAXIMUM       AVERAGE  MAXIMUM  AVERAGE  MAXIMUM
 CP2K                                 1  1.0     0.83     0.95 25767.54 25767.61
 qs_energies                          1  2.0     0.02     0.03 25747.91 25747.99
 integrate_four_center             1402  9.0    92.87   138.78 23348.12 23348.28
 integrate_four_center_main        1402 10.0     1.08     1.41 18157.38 20135.37
 integrate_four_center_bin        89728 11.0 18156.30 20134.27 18156.30 20134.27
 qs_energies_properties               1  3.0     0.00     0.01 19506.03 19506.11
 tddfpt                               1  4.0     0.07     0.09 19506.03 19506.11
 tddfpt_davidson_solver               2  5.0     0.01     0.02 19460.51 19460.56
 tddfpt_compute_Aop_evects           14  6.0     0.00     0.00 19390.74 19390.79
 tddfpt_apply_hfx                    14  7.0     0.03     0.04 17219.26 17219.30
 tddft_hfx_matrix                  1400  8.0     0.04     0.06 17165.81 17165.98
 scf_env_do_scf                       1  3.0     0.00     0.01  6190.09  6190.10
 scf_env_do_scf_inner_loop            2  4.0     0.02     0.02  6190.08  6190.10
 qs_ks_update_qs_env                  2  5.0     0.00     0.00  6186.27  6186.29
 rebuild_ks_matrix                    2  6.0     0.00     0.00  6186.26  6186.28
 qs_ks_build_kohn_sham_matrix         2  7.0     0.02     0.03  6186.26  6186.28
 hfx_ks_matrix                        2  8.0     0.01     0.01  6182.36  6182.39
 mp_sync                          13069 10.8  2166.75  4078.74  2166.75  4078.74
 fhxc_kernel                         14  7.0     0.06     0.07  2163.54  2163.55
 calc_screening_functions             1 10.0  1880.28  1896.74  2037.96  2055.94
 rs_pw_transfer                   11572 10.4     0.22     0.32   806.73   892.86
 qs_rho_update_rho_low              704  8.0     0.01     0.02   808.94   809.04
 calculate_rho_elec                1408  9.0     0.95     1.04   808.92   809.02
 calc_pair_dist_radii                 1 10.0   660.04   667.43   744.90   753.09
 pw_transfer                      25001 10.6     3.18     4.11   628.23   696.27
 fft_wrap_pw1pw2                  23597 11.6     0.31     0.40   623.45   691.73
 density_rs2pw                     1408 10.0     0.08     0.13   593.14   678.72
 integrate_v_rspace                1404  8.0     0.23     0.27   668.22   677.21
 fft_wrap_pw1pw2_250              14921 12.8    56.87    63.77   593.48   655.88
 tddfpt_apply_xc_analytic           700  8.0     7.68     8.69   633.74   635.71
 fft3d_ps                         23597 13.6   210.71   230.10   501.59   592.49
 mp_waitany                      237296 12.4   410.12   536.12   410.12   536.12
 -------------------------------------------------------------------------------

 The number of warnings for this run is : 1
 
 -------------------------------------------------------------------------------
  **** **** ******  **  PROGRAM ENDED AT                 2024-08-04 06:04:49.540
 ***** ** ***  *** **   PROGRAM RAN ON                                 a01r05n08
 **    ****   ******    PROGRAM RAN BY                                acot61svdh
 ***** **    ** ** **   PROGRAM PROCESS ID                                243846
  **** **  *******  **  PROGRAM STOPPED IN /work/home/acot61svdh/lyuli/Calculati
                                           on/Co-NGO/5-TransitionState/C4-try-1/
                                           4-TDDFT/2-PBE0/6-C4-CO-O-H2O
